Program Version,EnergyPlus, Version 9.4.0-998c4b761e, YMD=2021.05.04 15:59
1,5,Environment Title[],Latitude[deg],Longitude[deg],Time Zone[],Elevation[m]
2,8,Day of Simulation[],Month[],Day of Month[],DST Indicator[1=yes 0=no],Hour[],StartMinute[],EndMinute[],DayType
3,5,Cumulative Day of Simulation[],Month[],Day of Month[],DST Indicator[1=yes 0=no],DayType  ! When Daily Meters Requested
4,2,Cumulative Days of Simulation[],Month[]  ! When Monthly Meters Requested
5,1,Cumulative Days of Simulation[] ! When Run Period Meters Requested
6,1,Calendar Year of Simulation[] ! When Annual Meters Requested
9,1,Electricity:Facility [J] !Hourly
1604,1,Heating:Electricity [J] !Hourly
1782,1,Cooling:Electricity [J] !Hourly
45,1,InteriorLights:Electricity [J] !Hourly
1744,1,ExteriorLights:Electricity [J] !Hourly
432,1,InteriorEquipment:Electricity [J] !Hourly
1717,1,Fans:Electricity [J] !Hourly
1823,1,Pumps:Electricity [J] !Hourly
1658,1,NaturalGas:Facility [J] !Hourly
1682,1,Heating:NaturalGas [J] !Hourly
2065,1,WaterSystems:NaturalGas [J] !Hourly
End of Data Dictionary
1,RUNPERIOD 1,  40.02,-105.25,  -7.00,1634.00
2,1, 1, 1, 0, 1, 0.00,60.00,Holiday
9,325392253.3639152
45,9649497.642210719
432,57896985.85326433
1604,193892712.596968
1658,19616055.476065589
1682,19544055.476065589
1717,10628272.932648657
1744,53294400.0
1782,0.0
1823,30384.33882352941
2065,72000.0
2,1, 1, 1, 0, 2, 0.00,60.00,Holiday
9,286804498.9176926
45,9649497.642210719
432,57896985.85326433
1604,157076336.97285349
1658,15526426.212733429
1682,15454426.212733429
1717,8856894.110540549
1744,53294400.0
1782,0.0
1823,30384.33882352941
2065,72000.0
2,1, 1, 1, 0, 3, 0.00,60.00,Holiday
9,340421315.3194814
45,9649497.642210719
432,57896985.85326433
1604,208478929.84700705
1658,24918261.31972853
1682,20947499.263323565
1717,11071117.638175687
1744,53294400.0
1782,0.0
1823,30384.33882352941
2065,3970762.0564049675
2,1, 1, 1, 0, 4, 0.00,60.00,Holiday
9,296436761.0473188
45,9649497.642210719
432,57896985.85326433
1604,166708599.10247974
1658,16996174.60652412
1682,16924174.60652412
1717,8856894.110540549
1744,53294400.0
1782,0.0
1823,30384.33882352941
2065,72000.0
2,1, 1, 1, 0, 5, 0.00,60.00,Holiday
9,355621663.9174918
45,9649497.642210719
432,57896985.85326433
1604,223679278.44501753
1658,27106514.073415586
1682,23135525.35201428
1717,11071117.638175687
1744,53294400.0
1782,0.0
1823,30384.33882352941
2065,3970988.721401302
2,1, 1, 1, 0, 6, 0.00,60.00,Holiday
9,306506023.99644616
45,9649497.642210719
432,57896985.85326433
1604,176777862.051607
1658,18527796.363640459
1682,18455796.363640459
1717,8856894.110540549
1744,53294400.0
1782,0.0
1823,30384.33882352941
2065,72000.0
2,1, 1, 1, 0, 7, 0.00,60.00,Holiday
9,363178601.1913902
45,9649497.642210719
432,57896985.85326433
1604,231236215.71891598
1658,28449488.05774118
1682,24478796.675965214
1717,11071117.638175687
1744,53294400.0
1782,0.0
1823,30384.33882352941
2065,3970691.381775969
2,1, 1, 1, 0, 8, 0.00,60.00,Holiday
9,265372526.56816385
45,9649497.642210719
432,57896985.85326433
1604,171173964.6233247
1658,19315298.63394435
1682,19243298.63394435
1717,8856894.110540549
1744,17764800.0
1782,0.0
1823,30384.33882352941
2065,72000.0
2,1, 1, 1, 0, 9, 0.00,60.00,Holiday
9,254463102.84579564
45,9649497.642210719
432,57896985.85326433
1604,175815117.37332136
1658,28171459.12182817
1682,24200494.08076366
1717,11071117.638175687
1744,0.0
1782,0.0
1823,30384.33882352941
2065,3970965.041064508
2,1, 1, 1, 0,10, 0.00,60.00,Holiday
9,191912589.2585201
45,9649497.642210719
432,57896985.85326433
1604,115478827.31368098
1658,17142446.408036766
1682,17070446.408036766
1717,8856894.110540549
1744,0.0
1782,0.0
1823,30384.33882352941
2065,72000.0
2,1, 1, 1, 0,11, 0.00,60.00,Holiday
9,216755527.50125099
45,9649497.642210719
432,57896985.85326433
1604,138107542.0287767
1658,18932306.483912849
1682,18860306.483912849
1717,11071117.638175687
1744,0.0
1782,0.0
1823,30384.33882352941
2065,72000.0
2,1, 1, 1, 0,12, 0.00,60.00,Holiday
9,160642131.77251367
45,9649497.642210719
432,57896985.85326433
1604,86297893.37223885
1658,15993382.228829008
1682,12022410.277961947
1717,6767370.565976274
1744,0.0
1782,0.0
1823,30384.33882352941
2065,3970971.950867059
2,1, 1, 1, 0,13, 0.00,60.00,Holiday
9,171276267.0600525
45,9649497.642210719
432,57896985.85326433
1604,96110820.82851875
1658,16504738.24315534
1682,12533695.486792006
1717,7588578.397235228
1744,0.0
1782,0.0
1823,30384.33882352941
2065,3971042.7563633348
2,1, 1, 1, 0,14, 0.00,60.00,Holiday
9,134514643.69527553
45,9649497.642210719
432,57896985.85326433
1604,60866913.14318876
1658,6129798.71109386
1682,6057798.71109386
1717,6070862.717788182
1744,0.0
1782,0.0
1823,30384.33882352941
2065,72000.0
2,1, 1, 1, 0,15, 0.00,60.00,Holiday
9,143628351.92571018
45,9649497.642210719
432,57896985.85326433
1604,68462905.69417639
1658,8266039.298677144
1682,4294768.165312979
1717,7588578.397235228
1744,0.0
1782,0.0
1823,30384.33882352941
2065,3971271.1333641645
2,1, 1, 1, 0,16, 0.00,60.00,Holiday
9,127311317.25769769
45,9649497.642210719
432,57896985.85326433
1604,52967078.85742286
1658,1672902.5471500694
1682,1600902.5471500694
1717,6767370.565976273
1744,0.0
1782,0.0
1823,30384.33882352941
2065,72000.0
2,1, 1, 1, 0,17, 0.00,60.00,Holiday
9,191746317.29089535
45,9649497.642210719
432,57896985.85326433
1604,95333531.81842108
1658,7505971.867733788
1682,3534986.4991862166
1717,11071117.638175687
1744,17764800.0
1782,0.0
1823,30384.33882352941
2065,3970985.368547572
2,1, 1, 1, 0,18, 0.00,60.00,Holiday
9,235127397.15783946
45,9649497.642210719
432,57896985.85326433
1604,105399235.21300036
1658,3427494.926254481
1682,3355494.926254481
1717,8856894.110540549
1744,53294400.0
1782,0.0
1823,30384.33882352941
2065,72000.0
2,1, 1, 1, 0,19, 0.00,60.00,Holiday
9,290823715.6926007
45,9649497.642210719
432,57896985.85326433
1604,158881330.22012646
1658,12178408.088014499
1682,8207613.950475353
1717,11071117.638175687
1744,53294400.0
1782,0.0
1823,30384.33882352941
2065,3970794.1375391448
2,1, 1, 1, 0,20, 0.00,60.00,Holiday
9,271260253.1419287
45,9649497.642210719
432,57896985.85326433
1604,141532091.1970895
1658,8816589.417524225
1682,8744589.417524225
1717,8856894.110540549
1744,53294400.0
1782,0.0
1823,30384.33882352941
2065,72000.0
2,1, 1, 1, 0,21, 0.00,60.00,Holiday
9,327168406.1554013
45,9649497.642210719
432,57896985.85326433
1604,195226020.68292708
1658,15756312.986683609
1682,15684312.986683609
1717,11071117.638175687
1744,53294400.0
1782,0.0
1823,30384.33882352941
2065,72000.0
2,1, 1, 1, 0,22, 0.00,60.00,Holiday
9,290358139.6574492
45,9649497.642210719
432,57896985.85326433
1604,160629977.7126101
1658,17337465.655760155
1682,13366051.652291155
1717,8856894.110540549
1744,53294400.0
1782,0.0
1823,30384.33882352941
2065,3971414.003469
2,1, 1, 1, 0,23, 0.00,60.00,Holiday
9,342727637.5788042
45,9649497.642210719
432,57896985.85326433
1604,210785252.10632993
1658,19993362.83278816
1682,19921362.83278816
1717,11071117.638175687
1744,53294400.0
1782,0.0
1823,30384.33882352941
2065,72000.0
2,1, 1, 1, 0,24, 0.00,60.00,Holiday
9,300932124.5836351
45,9649497.642210719
432,57896985.85326433
1604,171203962.63879598
1658,20298328.84819912
1682,16327434.41116048
1717,8856894.110540549
1744,53294400.0
1782,0.0
1823,30384.33882352941
2065,3970894.4370386439
2,2, 1, 2, 0, 1, 0.00,60.00,Monday
9,363507285.5570323
45,9649497.642210719
432,77195981.13768575
1604,212265904.80013658
1658,22883228.069165119
1682,22811228.069165119
1717,11071117.638175687
1744,53294400.0
1782,0.0
1823,30384.33882352941
2065,72000.0
2,2, 1, 2, 0, 2, 0.00,60.00,Monday
9,318359912.1331112
45,9649497.642210719
432,77195981.13768575
1604,169332754.90385062
1658,22126951.129793418
1682,18155864.19093437
1717,8856894.110540549
1744,53294400.0
1782,0.0
1823,30384.33882352941
2065,3971086.938859046
2,2, 1, 2, 0, 3, 0.00,60.00,Monday
9,367975318.5420297
45,9649497.642210719
432,77195981.13768575
1604,216733937.78513403
1658,24492127.660715119
1682,24420127.660715119
1717,11071117.638175687
1744,53294400.0
1782,0.0
1823,30384.33882352941
2065,72000.0
2,2, 1, 2, 0, 4, 0.00,60.00,Monday
9,322693710.852123
45,9649497.642210719
432,77195981.13768575
1604,173666553.62286253
1658,22932941.3065171
1682,18961730.702358679
1717,8856894.110540549
1744,53294400.0
1782,0.0
1823,30384.33882352941
2065,3971210.6041584217
2,2, 1, 2, 0, 5, 0.00,60.00,Monday
9,372764666.24743828
45,9649497.642210719
432,77195981.13768575
1604,221523285.49054254
1658,24939540.957547673
1682,24867540.957547673
1717,11071117.638175687
1744,53294400.0
1782,0.0
1823,30384.33882352941
2065,72000.0
2,2, 1, 2, 0, 6, 0.00,60.00,Monday
9,334716462.0039472
45,19298995.284421438
432,77195981.13768575
1604,176039807.13247598
1658,22935176.61151223
1682,18963566.9692462
1717,8856894.110540549
1744,53294400.0
1782,0.0
1823,30384.33882352941
2065,3971609.642266027
2,2, 1, 2, 0, 7, 0.00,60.00,Monday
9,1085838491.5081297
45,19298995.284421438
432,77195981.13768575
1604,922733389.5813879
1658,9862579.933915442
1682,5891298.98510269
1717,13285341.165810822
1744,53294400.0
1782,0.0
1823,30384.33882352941
2065,3971280.948812752
2,2, 1, 2, 0, 8, 0.00,60.00,Monday
9,952645508.7605533
45,57896985.85326433
432,117654442.67614728
1604,746013554.726507
1658,280737617.3628065
1682,276764222.52417257
1717,13285341.165810822
1744,17764800.0
1782,0.0
1823,30384.338823529408
2065,3973394.8386339747
2,2, 1, 2, 0, 9, 0.00,60.00,Monday
9,883645903.5353959
45,173690957.55979295
432,253451924.59275989
1604,443187295.87820836
1658,254213114.10830517
1682,246332058.58025445
1717,13285341.165810822
1744,0.0
1782,0.0
1823,30384.33882352941
2065,7881055.528050693
2,2, 1, 2, 0,10, 0.00,60.00,Monday
9,730502433.5775411
45,173690957.55979295
432,223397067.4499028
1604,320098683.06321117
1658,220518113.99591116
1682,212635932.80445639
1717,13285341.165810822
1744,0.0
1782,0.0
1823,30384.338823529408
2065,7882181.191454772
2,2, 1, 2, 0,11, 0.00,60.00,Monday
9,674897208.2266836
45,173690957.55979295
432,216461331.18616648
1604,271429193.9760899
1658,188702427.78388448
1682,180819839.68023665
1717,13285341.165810822
1744,0.0
1782,0.0
1823,30384.338823529408
2065,7882588.103647815
2,2, 1, 2, 0,12, 0.00,60.00,Monday
9,658489523.2739548
45,173690957.55979295
432,223397067.4499028
1604,247858209.8161621
1658,160632898.2114236
1682,148841332.26878555
1717,13512904.109273343
1744,0.0
1782,0.0
1823,30384.338823529408
2065,11791565.942638068
2,2, 1, 2, 0,13, 0.00,60.00,Monday
9,654347103.5913788
45,173690957.55979295
432,221437412.82482205
1604,245545142.9837625
1658,133310120.56079567
1682,121510867.31381563
1717,13643205.884177654
1744,0.0
1782,0.0
1823,30384.338823529408
2065,11799253.24698008
2,2, 1, 2, 0,14, 0.00,60.00,Monday
9,590773873.8823577
45,173690957.55979295
432,229176847.66968299
1604,174077457.774216
1658,106181416.37286802
1682,94386155.2804861
1717,13798226.539842233
1744,0.0
1782,0.0
1823,30384.338823529408
2065,11795261.092381914
2,2, 1, 2, 0,15, 0.00,60.00,Monday
9,542929680.2344223
45,173690957.55979295
432,216461331.18616648
1604,139193260.13592369
1658,98445738.73518698
1682,90565198.55574383
1717,13553747.013715594
1744,0.0
1782,0.0
1823,30384.338823529408
2065,7880540.17944316
2,2, 1, 2, 0,16, 0.00,60.00,Monday
9,536133102.03478887
45,173690957.55979295
432,216461331.18616648
1604,132665087.78419505
1658,107682482.41205067
1682,99802858.81612912
1717,13285341.165810822
1744,0.0
1782,0.0
1823,30384.338823529408
2065,7879623.595921544
2,2, 1, 2, 0,17, 0.00,60.00,Monday
9,583248970.9148828
45,173690957.55979295
432,226864935.58177094
1604,151612552.2686846
1658,114087570.71703597
1682,106203323.28816487
1717,13285341.165810822
1744,17764800.0
1782,0.0
1823,30384.338823529408
2065,7884247.428871088
2,2, 1, 2, 0,18, 0.00,60.00,Monday
9,627580363.939499
45,135092966.9909501
432,226061237.00064618
1604,199816034.44326813
1658,119308766.7359129
1682,111431052.9184591
1717,13285341.165810822
1744,53294400.0
1782,0.0
1823,30384.338823529408
2065,7877713.817453796
2,2, 1, 2, 0,19, 0.00,60.00,Monday
9,539066391.5514259
45,96494976.4221072
432,129665444.23400118
1604,246295845.39068324
1658,120415039.59930715
1682,116441290.85204786
1717,13285341.165810822
1744,53294400.0
1782,0.0
1823,30384.33882352941
2065,3973748.747259298
2,2, 1, 2, 0,20, 0.00,60.00,Monday
9,546578339.0734022
45,96494976.4221072
432,120417795.88235286
1604,263055441.2643078
1658,123055587.01923496
1682,119082806.15754135
1717,13285341.165810822
1744,53294400.0
1782,0.0
1823,30384.338823529408
2065,3972780.8616936064
2,2, 1, 2, 0,21, 0.00,60.00,Monday
9,536407419.4014013
45,57896985.85326433
432,101118800.5979314
1604,310781507.44557127
1658,146563631.79630883
1682,142590632.0468501
1717,13285341.165810822
1744,53294400.0
1782,0.0
1823,30384.338823529408
2065,3972999.7494587216
2,2, 1, 2, 0,22, 0.00,60.00,Monday
9,553235215.9670572
45,57896985.85326433
432,96494976.4221072
1604,332233128.1870515
1658,182905046.40620829
1682,178933696.55190576
1717,13285341.165810822
1744,53294400.0
1782,0.0
1823,30384.338823529408
2065,3971349.8543025038
2,2, 1, 2, 0,23, 0.00,60.00,Monday
9,149819760.76093073
45,19298995.284421438
432,77195981.13768575
1604,0.0
1658,3970751.516090098
1682,0.0
1717,0.0
1744,53294400.0
1782,0.0
1823,30384.33882352941
2065,3970751.516090098
2,2, 1, 2, 0,24, 0.00,60.00,Monday
9,149513246.26975674
45,9649497.642210719
432,77195981.13768575
1604,7836188.703893362
1658,227758.8935753811
1682,155758.8935753811
1717,1506794.4471433836
1744,53294400.0
1782,0.0
1823,30384.338823529408
2065,72000.0
2,3, 1, 3, 0, 1, 0.00,60.00,Tuesday
9,163974634.02819524
45,9649497.642210719
432,77195981.13768575
1604,20790782.015188457
1658,4293887.068960756
1682,322927.1809988561
1717,3013588.894286767
1744,53294400.0
1782,0.0
1823,30384.33882352941
2065,3970959.8879619005
2,3, 1, 3, 0, 2, 0.00,60.00,Tuesday
9,179276667.18887974
45,9649497.642210719
432,77195981.13768575
1604,35339417.95230126
1658,3155456.2951268919
1682,3083456.2951268919
1717,3766986.1178584594
1744,53294400.0
1782,0.0
1823,30384.33882352941
2065,72000.0
2,3, 1, 3, 0, 3, 0.00,60.00,Tuesday
9,191902108.52288378
45,9649497.642210719
432,77195981.13768575
1604,45813846.37755068
1658,8842239.907643622
1682,4871046.582641751
1717,5917999.026613112
1744,53294400.0
1782,0.0
1823,30384.33882352941
2065,3971193.3250018719
2,3, 1, 3, 0, 4, 0.00,60.00,Tuesday
9,226567198.19280077
45,9649497.642210719
432,77195981.13768575
1604,76951002.41501062
1658,10653374.63279921
1682,10581374.63279921
1717,9445932.659070138
1744,53294400.0
1782,0.0
1823,30384.33882352941
2065,72000.0
2,3, 1, 3, 0, 5, 0.00,60.00,Tuesday
9,229115626.19773836
45,9649497.642210719
432,77195981.13768575
1604,79391961.12028975
1658,13967916.712645725
1682,9996906.746308467
1717,9553401.95872864
1744,53294400.0
1782,0.0
1823,30384.33882352941
2065,3971009.966337257
2,3, 1, 3, 0, 6, 0.00,60.00,Tuesday
9,260226024.56705425
45,19298995.284421438
432,77195981.13768575
1604,100031654.01613595
1658,16045007.000861975
1682,15973007.000861975
1717,10374609.789987596
1744,53294400.0
1782,0.0
1823,30384.33882352941
2065,72000.0
2,3, 1, 3, 0, 7, 0.00,60.00,Tuesday
9,848915771.5275588
45,19298995.284421438
432,77195981.13768575
1604,685810669.6008171
1658,5263583.391623089
1682,1292642.9063404457
1717,13285341.165810822
1744,53294400.0
1782,0.0
1823,30384.33882352941
2065,3970940.485282643
2,3, 1, 3, 0, 8, 0.00,60.00,Tuesday
9,708424097.186177
45,57896985.85326433
432,117654442.67614728
1604,501792143.15213099
1658,294321184.6069095
1682,290347789.33074209
1717,13285341.165810822
1744,17764800.0
1782,0.0
1823,30384.338823529408
2065,3973395.2761674236
2,3, 1, 3, 0, 9, 0.00,60.00,Tuesday
9,751472693.2307232
45,173690957.55979295
432,253451924.59275989
1604,311014085.5735359
1658,254027862.48907835
1682,246146622.15815539
1717,13285341.165810822
1744,0.0
1782,0.0
1823,30384.33882352941
2065,7881240.330922956
2,3, 1, 3, 0,10, 0.00,60.00,Tuesday
9,641644143.096056
45,173690957.55979295
432,223397067.4499028
1604,231240392.58172596
1658,191859021.87740387
1682,183976603.03638143
1717,13285341.165810822
1744,0.0
1782,0.0
1823,30384.338823529408
2065,7882418.841022437
2,3, 1, 3, 0,11, 0.00,60.00,Tuesday
9,587421578.0154579
45,173690957.55979295
432,216461331.18616648
1604,183953563.7648642
1658,131851390.9620893
1682,123969147.74318597
1717,13285341.165810822
1744,0.0
1782,0.0
1823,30384.338823529408
2065,7882243.218903324
2,3, 1, 3, 0,12, 0.00,60.00,Tuesday
9,551803635.9867098
45,173690957.55979295
432,223397067.4499028
1604,141399885.47237975
1658,105273913.52982918
1682,93480628.59665814
1717,13285341.165810822
1744,0.0
1782,0.0
1823,30384.338823529408
2065,11793284.933171016
2,3, 1, 3, 0,13, 0.00,60.00,Tuesday
9,556111144.7246294
45,173690957.55979295
432,221437412.82482205
1604,147405736.42326726
1658,90956784.67329222
1682,79158700.87802567
1717,13546653.577923563
1744,0.0
1782,0.0
1823,30384.338823529408
2065,11798083.795266556
2,3, 1, 3, 0,14, 0.00,60.00,Tuesday
9,516393459.52262029
45,173690957.55979295
432,229176847.66968299
1604,99377928.39147513
1658,70383218.96836373
1682,58586578.596043217
1717,14117341.56284562
1744,0.0
1782,0.0
1823,30384.338823529408
2065,11796640.372320543
2,3, 1, 3, 0,15, 0.00,60.00,Tuesday
9,480184277.9186544
45,173690957.55979295
432,216461331.18616648
1604,76079574.36110121
1658,72796597.25005809
1682,64915787.14707101
1717,13922030.47277017
1744,0.0
1782,0.0
1823,30384.338823529408
2065,7880810.102987066
2,3, 1, 3, 0,16, 0.00,60.00,Tuesday
9,467831950.42274239
45,173690957.55979295
432,216461331.18616648
1604,64215663.48720011
1658,95456662.04356507
1682,87576644.16405376
1717,13433613.850759285
1744,0.0
1782,0.0
1823,30384.338823529408
2065,7880017.879511328
2,3, 1, 3, 0,17, 0.00,60.00,Tuesday
9,508854138.65528866
45,173690957.55979295
432,226864935.58177094
1604,77217720.00909044
1658,117511717.17277742
1682,105720623.11740011
1717,13285341.165810822
1744,17764800.0
1782,0.0
1823,30384.338823529408
2065,11791094.055377299
2,3, 1, 3, 0,18, 0.00,60.00,Tuesday
9,563102569.735259
45,135092966.9909501
432,226061237.00064618
1604,135242686.75752778
1658,129868912.19819337
1682,125894254.95053959
1717,13380894.647311002
1744,53294400.0
1782,0.0
1823,30384.338823529408
2065,3974657.2476537565
2,3, 1, 3, 0,19, 0.00,60.00,Tuesday
9,485979335.05307617
45,96494976.4221072
432,129665444.23400118
1604,193208788.89233346
1658,162091506.0717339
1682,154215410.52790044
1717,13285341.165810822
1744,53294400.0
1782,0.0
1823,30384.33882352941
2065,7876095.543833456
2,3, 1, 3, 0,20, 0.00,60.00,Tuesday
9,497773940.20232817
45,96494976.4221072
432,120417795.88235286
1604,214251042.39323379
1658,181869138.04190115
1682,177896434.14150704
1717,13285341.165810822
1744,53294400.0
1782,0.0
1823,30384.338823529408
2065,3972703.9003941209
2,3, 1, 3, 0,21, 0.00,60.00,Tuesday
9,491572921.755358
45,57896985.85326433
432,101118800.5979314
1604,265947009.79952789
1658,202001493.229246
1682,198028485.97190333
1717,13285341.165810822
1744,53294400.0
1782,0.0
1823,30384.338823529408
2065,3973007.257342644
2,3, 1, 3, 0,22, 0.00,60.00,Tuesday
9,508460210.58590319
45,57896985.85326433
432,96494976.4221072
1604,287458122.8058974
1658,212786775.8353684
1682,212714775.8353684
1717,13285341.165810822
1744,53294400.0
1782,0.0
1823,30384.338823529408
2065,72000.0
2,3, 1, 3, 0,23, 0.00,60.00,Tuesday
9,149819760.76093073
45,19298995.284421438
432,77195981.13768575
1604,0.0
1658,3970953.6730433276
1682,0.0
1717,0.0
1744,53294400.0
1782,0.0
1823,30384.33882352941
2065,3970953.6730433276
2,3, 1, 3, 0,24, 0.00,60.00,Tuesday
9,140170263.11872
45,9649497.642210719
432,77195981.13768575
1604,0.0
1658,72000.0
1682,0.0
1717,0.0
1744,53294400.0
1782,0.0
1823,30384.338823529408
2065,72000.0
2,4, 1, 4, 0, 1, 0.00,60.00,Wednesday
9,158641070.68425078
45,9649497.642210719
432,77195981.13768575
1604,15457218.671244026
1658,5241221.3655767519
1682,1270166.4967858294
1717,3013588.8942867678
1744,53294400.0
1782,0.0
1823,30384.33882352941
2065,3971054.8687909238
2,4, 1, 4, 0, 2, 0.00,60.00,Wednesday
9,168660479.58258293
45,9649497.642210719
432,77195981.13768575
1604,24723230.34600447
1658,922637.9421168196
1682,850637.9421168196
1717,3766986.117858459
1744,53294400.0
1782,0.0
1823,30384.33882352941
2065,72000.0
2,4, 1, 4, 0, 3, 0.00,60.00,Wednesday
9,169316419.5465193
45,9649497.642210719
432,77195981.13768575
1604,26132567.533512545
1658,7955719.376631282
1682,3984545.071635146
1717,3013588.8942867678
1744,53294400.0
1782,0.0
1823,30384.33882352941
2065,3971174.3049961349
2,4, 1, 4, 0, 4, 0.00,60.00,Wednesday
9,182758752.51584358
45,9649497.642210719
432,77195981.13768575
1604,38821503.27926512
1658,7706653.696303673
1682,7634653.696303673
1717,3766986.117858459
1744,53294400.0
1782,0.0
1823,30384.33882352941
2065,72000.0
2,4, 1, 4, 0, 5, 0.00,60.00,Wednesday
9,199483534.65254713
45,9649497.642210719
432,77195981.13768575
1604,53292976.94792564
1658,15170062.741488908
1682,11199104.16674977
1717,6020294.585901467
1744,53294400.0
1782,0.0
1823,30384.33882352941
2065,3970958.574739136
2,4, 1, 4, 0, 6, 0.00,60.00,Wednesday
9,240592651.24993644
45,19298995.284421438
432,77195981.13768575
1604,81162599.15489348
1658,16574637.012814999
1682,15436484.10030329
1717,9610291.33411224
1744,53294400.0
1782,0.0
1823,30384.33882352941
2065,1138152.9125117078
2,4, 1, 4, 0, 7, 0.00,60.00,Wednesday
9,784903049.1073711
45,19298995.284421438
432,77195981.13768575
1604,621797947.1806295
1658,3984283.351815955
1682,1079572.2875811174
1717,13285341.165810822
1744,53294400.0
1782,0.0
1823,30384.33882352941
2065,2904711.0642348376
2,4, 1, 4, 0, 8, 0.00,60.00,Wednesday
9,643488085.2283821
45,57896985.85326433
432,117654442.67614728
1604,436856131.19433608
1658,281420916.5927023
1682,277447590.6228183
1717,13285341.165810822
1744,17764800.0
1782,0.0
1823,30384.338823529408
2065,3973325.969884042
2,4, 1, 4, 0, 9, 0.00,60.00,Wednesday
9,643123493.1236113
45,173690957.55979295
432,253451924.59275989
1604,202664885.46642406
1658,236372791.2377702
1682,228491236.57065869
1717,13285341.165810822
1744,0.0
1782,0.0
1823,30384.33882352941
2065,7881554.66711146
2,4, 1, 4, 0,10, 0.00,60.00,Wednesday
9,547023002.9039419
45,173690957.55979295
432,223397067.4499028
1604,136619252.38961173
1658,184655714.55592356
1682,172867600.53746418
1717,13285341.165810822
1744,0.0
1782,0.0
1823,30384.338823529408
2065,11788114.01845937
2,4, 1, 4, 0,11, 0.00,60.00,Wednesday
9,523493832.42762926
45,173690957.55979295
432,216461331.18616648
1604,119712696.18538289
1658,120528275.28396178
1682,112645719.7290983
1717,13598463.15746332
1744,0.0
1782,0.0
1823,30384.338823529408
2065,7882555.554863451
2,4, 1, 4, 0,12, 0.00,60.00,Wednesday
9,524497223.4410089
45,173690957.55979295
432,223397067.4499028
1604,112667685.11110962
1658,64837186.80621807
1682,56952159.732657019
1717,14711128.981380048
1744,0.0
1782,0.0
1823,30384.338823529408
2065,7885027.073561054
2,4, 1, 4, 0,13, 0.00,60.00,Wednesday
9,528208153.3009721
45,173690957.55979295
432,221437412.82482205
1604,117687589.61519143
1658,41828390.48957934
1682,26121567.8454397
1717,15361808.962342002
1744,0.0
1782,0.0
1823,30384.338823529408
2065,15706822.644139637
2,4, 1, 4, 0,14, 0.00,60.00,Wednesday
9,492783759.7574517
45,173690957.55979295
432,229176847.66968299
1604,74129983.94707656
1658,24102466.1901488
1682,12306975.031961412
1717,15755586.24207563
1744,0.0
1782,0.0
1823,30384.338823529408
2065,11795491.15818739
2,4, 1, 4, 0,15, 0.00,60.00,Wednesday
9,459749265.8820133
45,173690957.55979295
432,216461331.18616648
1604,54768067.00933638
1658,29677663.574041718
1682,21797164.45157823
1717,14798525.787893884
1744,0.0
1782,0.0
1823,30384.338823529408
2065,7880499.122463483
2,4, 1, 4, 0,16, 0.00,60.00,Wednesday
9,458827536.5039714
45,173690957.55979295
432,216461331.18616648
1604,55077886.294979009
1658,75207336.9172348
1682,67327335.24288225
1717,13566977.124209444
1744,0.0
1782,0.0
1823,30384.338823529408
2065,7880001.674352548
2,4, 1, 4, 0,17, 0.00,60.00,Wednesday
9,506962276.60621127
45,173690957.55979295
432,226864935.58177094
1604,75181900.35319549
1658,105082367.61351319
1682,97197071.04441826
1717,13429298.772628366
1744,17764800.0
1782,0.0
1823,30384.338823529408
2065,7885296.569094915
2,4, 1, 4, 0,18, 0.00,60.00,Wednesday
9,547020532.8132258
45,135092966.9909501
432,226061237.00064618
1604,118873291.39372279
1658,124855838.89377153
1682,116978322.06046206
1717,13668253.08908286
1744,53294400.0
1782,0.0
1823,30384.338823529408
2065,7877516.833309462
2,4, 1, 4, 0,19, 0.00,60.00,Wednesday
9,461639411.0097912
45,96494976.4221072
432,129665444.23400118
1604,168868864.84904856
1658,151048594.17517198
1682,147074819.88790248
1717,13285341.165810822
1744,53294400.0
1782,0.0
1823,30384.33882352941
2065,3973774.2872695105
2,4, 1, 4, 0,20, 0.00,60.00,Wednesday
9,468141731.69519987
45,96494976.4221072
432,120417795.88235286
1604,184618833.88610558
1658,169406487.89551697
1682,165433790.9741477
1717,13285341.165810822
1744,53294400.0
1782,0.0
1823,30384.338823529408
2065,3972696.921369262
2,4, 1, 4, 0,21, 0.00,60.00,Wednesday
9,450031412.94320896
45,57896985.85326433
432,101118800.5979314
1604,224405500.9873789
1658,186868453.28459317
1682,182895430.9675972
1717,13285341.165810822
1744,53294400.0
1782,0.0
1823,30384.338823529408
2065,3973022.3169959827
2,4, 1, 4, 0,22, 0.00,60.00,Wednesday
9,466047885.038685
45,57896985.85326433
432,96494976.4221072
1604,245045797.25867928
1658,198678804.11136804
1682,194707588.54025469
1717,13285341.165810822
1744,53294400.0
1782,0.0
1823,30384.338823529408
2065,3971215.5711133496
2,4, 1, 4, 0,23, 0.00,60.00,Wednesday
9,149819760.76093073
45,19298995.284421438
432,77195981.13768575
1604,0.0
1658,72000.0
1682,0.0
1717,0.0
1744,53294400.0
1782,0.0
1823,30384.33882352941
2065,72000.0
2,4, 1, 4, 0,24, 0.00,60.00,Wednesday
9,140170263.11872
45,9649497.642210719
432,77195981.13768575
1604,0.0
1658,3970859.8796140418
1682,0.0
1717,0.0
1744,53294400.0
1782,0.0
1823,30384.338823529408
2065,3970859.8796140418
2,5, 1, 5, 0, 1, 0.00,60.00,Thursday
9,140170263.11872
45,9649497.642210719
432,77195981.13768575
1604,0.0
1658,72000.0
1682,0.0
1717,0.0
1744,53294400.0
1782,0.0
1823,30384.338823529408
2065,72000.0
2,5, 1, 5, 0, 2, 0.00,60.00,Thursday
9,160930271.82526345
45,9649497.642210719
432,77195981.13768575
1604,17746419.812256684
1658,6836872.149273491
1682,2865899.388475674
1717,3013588.8942867678
1744,53294400.0
1782,0.0
1823,30384.33882352941
2065,3970972.7607978174
2,5, 1, 5, 0, 3, 0.00,60.00,Thursday
9,172698446.52504335
45,9649497.642210719
432,77195981.13768575
1604,28761197.288464864
1658,4491793.817831173
1682,4419793.817831173
1717,3766986.117858459
1744,53294400.0
1782,0.0
1823,30384.33882352941
2065,72000.0
2,5, 1, 5, 0, 4, 0.00,60.00,Thursday
9,172550206.2808011
45,9649497.642210719
432,77195981.13768575
1604,29366354.26779434
1658,11123093.941089839
1682,7152536.568500396
1717,3013588.8942867678
1744,53294400.0
1782,0.0
1823,30384.33882352941
2065,3970557.372589443
2,5, 1, 5, 0, 5, 0.00,60.00,Thursday
9,184491697.6268456
45,9649497.642210719
432,77195981.13768575
1604,40554448.390267159
1658,9980541.507248149
1682,9908541.507248149
1717,3766986.117858459
1744,53294400.0
1782,0.0
1823,30384.33882352941
2065,72000.0
2,5, 1, 5, 0, 6, 0.00,60.00,Thursday
9,194100498.9170891
45,19298995.284421438
432,77195981.13768575
1604,40709942.98332113
1658,15069155.88714813
1682,11097771.96823914
1717,3570795.1728372408
1744,53294400.0
1782,0.0
1823,30384.33882352941
2065,3971383.9189089925
2,5, 1, 5, 0, 7, 0.00,60.00,Thursday
9,738760265.0724933
45,19298995.284421438
432,77195981.13768575
1604,575655163.1457517
1658,1093698.3342277513
1682,1021698.3342277513
1717,13285341.165810822
1744,53294400.0
1782,0.0
1823,30384.33882352941
2065,72000.0
2,5, 1, 5, 0, 8, 0.00,60.00,Thursday
9,639490172.8996456
45,57896985.85326433
432,117654442.67614728
1604,432858218.8655995
1658,305251863.9972491
1682,297377333.4013065
1717,13285341.165810822
1744,17764800.0
1782,0.0
1823,30384.338823529408
2065,7874530.595942706
2,5, 1, 5, 0, 9, 0.00,60.00,Thursday
9,708933077.0946822
45,173690957.55979295
432,253451924.59275989
1604,268474469.43749508
1658,289793533.5267097
1682,281912526.61420437
1717,13285341.165810822
1744,0.0
1782,0.0
1823,30384.33882352941
2065,7881006.912505343
2,5, 1, 5, 0,10, 0.00,60.00,Thursday
9,608614926.4749575
45,173690957.55979295
432,223397067.4499028
1604,198211175.96062745
1658,278621718.7743029
1682,270739698.6284081
1717,13285341.165810822
1744,0.0
1782,0.0
1823,30384.338823529408
2065,7882020.145894844
2,5, 1, 5, 0,11, 0.00,60.00,Thursday
9,549999300.8797108
45,173690957.55979295
432,216461331.18616648
1604,146531286.62911699
1658,269142661.0760454
1682,261259616.12991507
1717,13285341.165810822
1744,0.0
1782,0.0
1823,30384.338823529408
2065,7883044.946130289
2,5, 1, 5, 0,12, 0.00,60.00,Thursday
9,547149563.8847897
45,173690957.55979295
432,223397067.4499028
1604,136743269.923275
1658,259288515.7760705
1682,247495936.79039476
1717,13287884.61299539
1744,0.0
1782,0.0
1823,30384.338823529408
2065,11792578.985675734
2,5, 1, 5, 0,13, 0.00,60.00,Thursday
9,550826879.050258
45,173690957.55979295
432,221437412.82482205
1604,142107903.06791304
1658,236413912.41353638
1682,224614472.28615458
1717,13560221.258906426
1744,0.0
1782,0.0
1823,30384.338823529408
2065,11799440.12738182
2,5, 1, 5, 0,14, 0.00,60.00,Thursday
9,515927033.438632
45,173690957.55979295
432,229176847.66968299
1604,98960574.0014955
1658,208789064.33452795
1682,196994339.91643987
1717,14068269.86883708
1744,0.0
1782,0.0
1823,30384.338823529408
2065,11794724.418088096
2,5, 1, 5, 0,15, 0.00,60.00,Thursday
9,482909379.172609
45,173690957.55979295
432,216461331.18616648
1604,78851568.48682985
1658,208978697.465218
1682,201098008.09211648
1717,13875137.600996018
1744,0.0
1782,0.0
1823,30384.338823529408
2065,7880689.373101547
2,5, 1, 5, 0,16, 0.00,60.00,Thursday
9,480735910.1380167
45,173690957.55979295
432,216461331.18616648
1604,77236213.8417961
1658,234559902.34283898
1682,226679680.02720223
1717,13317023.21143764
1744,0.0